# vtk DataFile Version 5.1
written by meshio v5.3.5
ASCII
DATASET UNSTRUCTURED_GRID
POINTS 100 double
0.0 0.0 0.0 10.0 0.0 0.0 10.0 10.0 0.0 0.0 10.0 0.0 1.111111111110222 0.0 0.0 2.222222222218397 0.0 0.0 3.333333333326263 0.0 0.0 4.444444444435999 0.0 0.0 5.5555555555488 0.0 0.0 6.6666666666616 0.0 0.0 7.7777777777744 0.0 0.0 8.8888888888872 0.0 0.0 10.0 1.111111111110222 0.0 10.0 2.222222222218397 0.0 10.0 3.333333333326263 0.0 10.0 4.444444444435999 0.0 10.0 5.5555555555488 0.0 10.0 6.6666666666616 0.0 10.0 7.7777777777744 0.0 10.0 8.8888888888872 0.0 8.888888888888888 10.0 0.0 7.777777777777773 10.0 0.0 6.666666666666663 10.0 0.0 5.555555555555552 10.0 0.0 4.444444444444442 10.0 0.0 3.333333333333331 10.0 0.0 2.222222222222221 10.0 0.0 1.111111111111111 10.0 0.0 0.0 8.888888888888888 0.0 0.0 7.777777777777773 0.0 0.0 6.666666666666663 0.0 0.0 5.555555555555552 0.0 0.0 4.444444444444442 0.0 0.0 3.333333333333331 0.0 0.0 2.222222222222221 0.0 0.0 1.111111111111111 0.0 1.11111111111032 1.111111111111012 0.0 1.11111111111042 2.222222222221796 0.0 1.111111111110518 3.333333333332546 0.0 1.111111111110617 4.444444444443503 0.0 1.111111111110716 5.555555555554803 0.0 1.111111111110815 6.666666666666098 0.0 1.111111111110914 7.777777777777399 0.0 1.111111111111012 8.888888888888701 0.0 2.222222222218821 1.111111111110914 0.0 2.222222222219247 2.222222222221371 0.0 2.222222222219672 3.33333333333176 0.0 2.222222222220096 4.444444444442565 0.0 2.222222222220522 5.555555555554053 0.0 2.222222222220946 6.666666666665537 0.0 2.222222222221372 7.777777777777024 0.0 2.222222222221796 8.888888888888513 0.0 3.333333333327048 1.111111111110815 0.0 3.333333333327834 2.222222222220947 0.0 3.333333333328619 3.333333333330975 0.0 3.333333333329405 4.444444444441627 0.0 3.33333333333019 5.555555555553301 0.0 3.333333333330975 6.666666666664975 0.0 3.333333333331761 7.777777777776651 0.0 3.333333333332546 8.888888888888324 0.0 4.444444444436936 1.111111111110716 0.0 4.444444444437876 2.222222222220521 0.0 4.444444444438814 3.33333333333019 0.0 4.444444444439752 4.444444444440689 0.0 4.444444444440689 5.555555555552551 0.0 4.444444444441627 6.666666666664412 0.0 4.444444444442565 7.777777777776276 0.0 4.444444444443503 8.888888888888136 0.0 5.55555555554955 1.111111111110617 0.0 5.555555555550301 2.222222222220097 0.0 5.555555555551051 3.333333333329405 0.0 5.555555555551801 4.444444444439752 0.0 5.555555555552552 5.5555555555518 0.0 5.555555555553301 6.666666666663851 0.0 5.555555555554053 7.777777777775899 0.0 5.555555555554803 8.888888888887951 0.0 6.666666666662159 1.111111111110518 0.0 6.666666666662723 2.222222222219673 0.0 6.666666666663286 3.333333333328619 0.0 6.666666666663849 4.444444444438814 0.0 6.666666666664412 5.555555555551051 0.0 6.666666666664975 6.666666666663287 0.0 6.666666666665538 7.777777777775524 0.0 6.666666666666099 8.888888888887763 0.0 7.777777777774776 1.11111111111042 0.0 7.77777777777515 2.222222222219247 0.0 7.777777777775526 3.333333333327835 0.0 7.777777777775901 4.444444444437876 0.0 7.777777777776274 5.555555555550301 0.0 7.777777777776649 6.666666666662724 0.0 7.777777777777022 7.77777777777515 0.0 7.7777777777774 8.888888888887577 0.0 8.88888888888739 1.111111111110321 0.0 8.888888888887575 2.222222222218821 0.0 8.88888888888776 3.333333333327048 0.0 8.888888888887951 4.444444444436938 0.0 8.888888888888136 5.55555555554955 0.0 8.888888888888324 6.666666666662162 0.0 8.888888888888514 7.777777777774777 0.0 8.888888888888701 8.888888888887386 0.0
CELLS 122 400
OFFSETS vtktypeint64
0
1
2
3
4
6
8
10
12
14
16
18
20
22
24
26
28
30
32
34
36
38
40
42
44
46
48
50
52
54
56
58
60
62
64
66
68
70
72
74
76
80
84
88
92
96
100
104
108
112
116
120
124
128
132
136
140
144
148
152
156
160
164
168
172
176
180
184
188
192
196
200
204
208
212
216
220
224
228
232
236
240
244
248
252
256
260
264
268
272
276
280
284
288
292
296
300
304
308
312
316
320
324
328
332
336
340
344
348
352
356
360
364
368
372
376
380
384
388
392
396
400
CONNECTIVITY vtktypeint64
0
1
2
3
0
4
4
5
5
6
6
7
7
8
8
9
9
10
10
11
11
1
1
12
12
13
13
14
14
15
15
16
16
17
17
18
18
19
19
2
2
20
20
21
21
22
22
23
23
24
24
25
25
26
26
27
27
3
3
28
28
29
29
30
30
31
31
32
32
33
33
34
34
35
35
0
0
4
36
35
35
36
37
34
34
37
38
33
33
38
39
32
32
39
40
31
31
40
41
30
30
41
42
29
29
42
43
28
28
43
27
3
4
5
44
36
36
44
45
37
37
45
46
38
38
46
47
39
39
47
48
40
40
48
49
41
41
49
50
42
42
50
51
43
43
51
26
27
5
6
52
44
44
52
53
45
45
53
54
46
46
54
55
47
47
55
56
48
48
56
57
49
49
57
58
50
50
58
59
51
51
59
25
26
6
7
60
52
52
60
61
53
53
61
62
54
54
62
63
55
55
63
64
56
56
64
65
57
57
65
66
58
58
66
67
59
59
67
24
25
7
8
68
60
60
68
69
61
61
69
70
62
62
70
71
63
63
71
72
64
64
72
73
65
65
73
74
66
66
74
75
67
67
75
23
24
8
9
76
68
68
76
77
69
69
77
78
70
70
78
79
71
71
79
80
72
72
80
81
73
73
81
82
74
74
82
83
75
75
83
22
23
9
10
84
76
76
84
85
77
77
85
86
78
78
86
87
79
79
87
88
80
80
88
89
81
81
89
90
82
82
90
91
83
83
91
21
22
10
11
92
84
84
92
93
85
85
93
94
86
86
94
95
87
87
95
96
88
88
96
97
89
89
97
98
90
90
98
99
91
91
99
20
21
11
1
12
92
92
12
13
93
93
13
14
94
94
14
15
95
95
15
16
96
96
16
17
97
97
17
18
98
98
18
19
99
99
19
2
20
CELL_TYPES 121
1
1
1
1
3
3
3
3
3
3
3
3
3
3
3
3
3
3
3
3
3
3
3
3
3
3
3
3
3
3
3
3
3
3
3
3
3
3
3
3
9
9
9
9
9
9
9
9
9
9
9
9
9
9
9
9
9
9
9
9
9
9
9
9
9
9
9
9
9
9
9
9
9
9
9
9
9
9
9
9
9
9
9
9
9
9
9
9
9
9
9
9
9
9
9
9
9
9
9
9
9
9
9
9
9
9
9
9
9
9
9
9
9
9
9
9
9
9
9
9
9
POINT_DATA 100
FIELD FieldData 1
gmsh:dim_tags 3 100 vtktypeint64
0 1 0 0 2 0 0 3 0 0 4 0 1 1 0 1 1 0 1 1 0 1 1 0 1 1 0 1 1 0 1 1 0 1 1 0 1 2 0 1 2 0 1 2 0 1 2 0 1 2 0 1 2 0 1 2 0 1 2 0 1 3 0 1 3 0 1 3 0 1 3 0 1 3 0 1 3 0 1 3 0 1 3 0 1 4 0 1 4 0 1 4 0 1 4 0 1 4 0 1 4 0 1 4 0 1 4 0 2 1 0 2 1 0 2 1 0 2 1 0 2 1 0 2 1 0 2 1 0 2 1 0 2 1 0 2 1 0 2 1 0 2 1 0 2 1 0 2 1 0 2 1 0 2 1 0 2 1 0 2 1 0 2 1 0 2 1 0 2 1 0 2 1 0 2 1 0 2 1 0 2 1 0 2 1 0 2 1 0 2 1 0 2 1 0 2 1 0 2 1 0 2 1 0 2 1 0 2 1 0 2 1 0 2 1 0 2 1 0 2 1 0 2 1 0 2 1 0 2 1 0 2 1 0 2 1 0 2 1 0 2 1 0 2 1 0 2 1 0 2 1 0 2 1 0 2 1 0 2 1 0 2 1 0 2 1 0 2 1 0 2 1 0 2 1 0 2 1 0 2 1 0 2 1 0 2 1 0 2 1 0 2 1 0 2 1 0 2 1 0
CELL_DATA 121
FIELD FieldData 3
gmsh:geometrical 1 121 vtktypeint64
1 2 3 4 1 1 1 1 1 1 1 1 1 2 2 2 2 2 2 2 2 2 3 3 3 3 3 3 3 3 3 4 4 4 4 4 4 4 4 4 1 1 1 1 1 1 1 1 1 1 1 1 1 1 1 1 1 1 1 1 1 1 1 1 1 1 1 1 1 1 1 1 1 1 1 1 1 1 1 1 1 1 1 1 1 1 1 1 1 1 1 1 1 1 1 1 1 1 1 1 1 1 1 1 1 1 1 1 1 1 1 1 1 1 1 1 1 1 1 1 1
ElementNumber 1 121 vtktypeint64
0 0 0 0 0 1 2 3 4 5 6 7 8 0 1 2 3 4 5 6 7 8 0 1 2 3 4 5 6 7 8 0 1 2 3 4 5 6 7 8 0 1 2 3 4 5 6 7 8 9 10 11 12 13 14 15 16 17 18 19 20 21 22 23 24 25 26 27 28 29 30 31 32 33 34 35 36 37 38 39 40 41 42 43 44 45 46 47 48 49 50 51 52 53 54 55 56 57 58 59 60 61 62 63 64 65 66 67 68 69 70 71 72 73 74 75 76 77 78 79 80
gmsh:bounding_entities 1 121 vtktypeint64
-1 -1 -1 -1 -1 0 -1 -1 -1 -1 -1 0 -1 -1 -1 0 -1 -1 -1 0 -1 -1 -1 -1 -1 0 -1 0 -1 -1 -1 -1 -1 -1 -1 0 -1 -1 -1 0 -1 0 0 0 0 -1 -1 -1 -1 -1 -1 -1 -1 -1 -1 -1 -1 -1 -1 -1 -1 -1 -1 -1 -1 -1 -1 -1 -1 -1 -1 -1 -1 -1 -1 -1 -1 -1 -1 -1 -1 -1 -1 -1 -1 -1 -1 -1 -1 -1 -1 -1 -1 -1 -1 -1 -1 -1 -1 -1 -1 -1 -1 -1 -1 -1 -1 -1 -1 -1 -1 -1 -1 -1 -1 -1 -1 -1 -1 -1 -1
